SPC/E water
  648
    1SOL     OW    1   0.127   0.487   0.141 -0.0331  0.0815  0.2508
    1SOL    HW1    2   0.054   0.500   0.208 -1.3200 -1.2015 -0.8324
    1SOL    HW2    3   0.120   0.556   0.070 -2.3875 -1.9473 -1.6584
    2SOL     OW    4   0.082   0.289   1.007 -0.6332 -0.1634 -0.6351
    2SOL    HW1    5   0.077   0.194   1.038  1.6281  0.5239  2.3049
    2SOL    HW2    6   0.014   0.305   0.936 -1.8513 -3.6502 -0.4175
    3SOL     OW    7   0.012   0.375   0.646  0.1025 -0.5735 -0.0926
    3SOL    HW1    8  -0.069   0.420   0.684  0.2399 -0.0948 -0.3532
    3SOL    HW2    9  -0.017   0.297   0.590 -0.2665  0.2355 -1.0682
    4SOL     OW   10   0.531   1.397   1.297  0.0507  0.0013 -0.5380
    4SOL    HW1   11   0.433   1.406   1.281 -0.1829  1.9557  1.4636
    4SOL    HW2   12   0.574   1.487   1.287  0.9038  0.0462  2.5862
    5SOL     OW   13   1.573   1.471   0.719  0.3442  0.0499  0.3504
    5SOL    HW1   14   1.522   1.461   0.805 -0.6598  2.2907  0.0682
    5SOL    HW2   15   1.513   1.508   0.648  1.7397  0.4258 -0.6836
    6SOL     OW   16   1.796   0.697   0.867 -0.4481  0.1221  0.0798
    6SOL    HW1   17   1.891   0.697   0.835 -0.2516 -1.7051  0.5759
    6SOL    HW2   18   1.795   0.693   0.967 -1.0680  0.6431  0.1024
    7SOL     OW   19   1.076   0.775   0.637 -0.2520  0.1808 -0.4266
    7SOL    HW1   20   1.172   0.803   0.647  0.4263 -1.5161 -1.7737
    7SOL    HW2   21   1.053   0.709   0.708 -0.2086  0.0653 -0.5194
    8SOL     OW   22   1.734   0.654   0.236  0.1901 -0.3294  0.3823
    8SOL    HW1   23   1.721   0.651   0.137 -3.0735  2.1506  0.5594
    8SOL    HW2   24   1.679   0.583   0.279 -0.1264 -0.0382  0.4677
    9SOL     OW   25   0.701   1.217   1.144 -0.5635  0.2894  0.5145
    9SOL    HW1   26   0.663   1.295   1.193  0.2556  0.0436  1.5763
    9SOL    HW2   27   0.748   1.249   1.062  0.9675  1.0893  1.6592
   10SOL     OW   28   0.826   0.755   1.811  0.0923  0.0177  0.2639
   10SOL    HW1   29   0.793   0.796   1.896  1.8977  0.9189  0.5674
   10SOL    HW2   30   0.842   0.827   1.744  2.9931 -0.1477  0.6859
   11SOL     OW   31   0.731   0.987   0.663 -0.3964  0.0870 -0.3780
   11SOL    HW1   32   0.780   0.950   0.742  0.4463  0.0939 -0.8821
   11SOL    HW2   33   0.649   1.035   0.694 -0.6560 -0.8347  0.4011
   12SOL     OW   34   0.696   1.097   1.772  0.0105 -0.3141  0.2751
   12SOL    HW1   35   0.731   1.190   1.777  0.5708 -0.5528  0.7922
   12SOL    HW2   36   0.645   1.085   1.686  1.2482  0.0091 -0.5200
   13SOL     OW   37   0.276   1.395   1.179 -0.3814 -0.1750 -0.1051
   13SOL    HW1   38   0.221   1.312   1.186 -0.0934 -0.2874  1.0057
   13SOL    HW2   39   0.298   1.413   1.083 -2.6931  0.1111 -0.6361
   14SOL     OW   40   1.384   1.595   1.383 -0.0677 -0.4594  0.2086
   14SOL    HW1   41   1.453   1.646   1.434  0.7652 -1.1704 -0.1766
   14SOL    HW2   42   1.295   1.606   1.427  0.6416 -1.1703  1.8889
   15SOL     OW   43   0.486   0.368   1.479 -0.2466 -0.3348  0.9183
   15SOL    HW1   44   0.507   0.338   1.386 -2.7469  0.4452  0.0133
   15SOL    HW2   45   0.424   0.302   1.522  0.4478 -0.4025  1.8520
   16SOL     OW   46   1.653   0.506   0.737 -0.2640  0.1937  0.1788
   16SOL    HW1   47   1.617   0.550   0.655  1.5206  0.2434 -0.6415
   16SOL    HW2   48   1.699   0.575   0.794  1.3646 -0.3253 -0.4471
   17SOL     OW   49   0.273   1.709   0.467  0.0979 -0.3834  0.4655
   17SOL    HW1   50   0.295   1.791   0.520  0.4293  0.5033 -1.0012
   17SOL    HW2   51   0.353   1.681   0.415  0.0283 -1.7443  1.0449
   18SOL     OW   52   1.203   1.350   1.730  0.1153  0.0888  0.6002
   18SOL    HW1   53   1.275   1.313   1.671  0.3181  0.0881  0.8417
   18SOL    HW2   54   1.148   1.276   1.767 -0.7599  0.1574 -0.5121
   19SOL     OW   55   0.247   1.400   0.501 -0.0933  0.1059 -0.2242
   19SOL    HW1   56   0.263   1.495   0.529 -0.0026 -0.0747  0.3472
   19SOL    HW2   57   0.209   1.348   0.577  0.3165 -0.4368 -0.3766
   20SOL     OW   58   0.287   1.103   0.911  0.1513  0.1017 -0.3705
   20SOL    HW1   59   0.321   1.011   0.929 -2.1520 -0.9236 -0.8151
   20SOL    HW2   60   0.257   1.145   0.997 -0.4063 -0.2758 -0.3768
   21SOL     OW   61   0.684   1.761   1.510  0.3178  0.2284  0.3866
   21SOL    HW1   62   0.639   1.734   1.595  0.4378 -0.2099  0.3131
   21SOL    HW2   63   0.683   1.861   1.502 -1.0196  0.2101  0.1762
   22SOL     OW   64   0.550   1.019   0.127 -0.2937  0.2288 -0.2654
   22SOL    HW1   65   0.620   1.056   0.066 -0.5310 -1.3411 -1.5821
   22SOL    HW2   66   0.579   0.929   0.161 -0.4764  0.7769  1.4212
   23SOL     OW   67   1.451   0.175   1.436  0.0415  0.4777  0.5529
   23SOL    HW1   68   1.530   0.236   1.445 -0.6371  1.6723 -1.0896
   23SOL    HW2   69   1.367   0.228   1.451 -0.5912  0.1015 -1.4348
   24SOL     OW   70   0.174   0.585   0.532  0.0806 -0.1218 -0.0119
   24SOL    HW1   71   0.124   0.498   0.532 -0.1939  0.0361  0.7477
   24SOL    HW2   72   0.125   0.652   0.587 -0.4747  0.9645 -1.7444
   25SOL     OW   73   0.032   1.670   0.196 -0.2340  0.1964  0.6451
   25SOL    HW1   74   0.058   1.642   0.289  0.7792  1.9322  0.9423
   25SOL    HW2   75   0.003   1.766   0.197 -1.5759 -0.1640 -0.6234
   26SOL     OW   76   1.765   1.463   0.023 -0.0118  0.7420 -0.1248
   26SOL    HW1   77   1.736   1.400   0.095 -0.4697 -0.0210 -0.9528
   26SOL    HW2   78   1.822   1.535   0.062 -1.0278  0.8857  1.1508
   27SOL     OW   79   1.812   0.990   0.777 -0.1650  0.9373  0.0339
   27SOL    HW1   80   1.735   0.928   0.762 -1.3298  2.2534  0.3734
   27SOL    HW2   81   1.784   1.084   0.757  0.3783  1.8623  3.0700
   28SOL     OW   82   1.692   1.107   0.436 -0.1292 -0.3692 -0.4298
   28SOL    HW1   83   1.782   1.063   0.442 -0.9896 -2.0309  1.8950
   28SOL    HW2   84   1.693   1.191   0.491 -0.5037 -1.4448  1.2812
   29SOL     OW   85   0.129   0.778   1.548  0.0052 -0.0463 -0.0013
   29SOL    HW1   86   0.204   0.844   1.549  1.0204 -1.0722 -1.9739
   29SOL    HW2   87   0.051   0.817   1.500  0.5771 -0.2313 -1.1036
   30SOL     OW   88   0.599   1.350   0.714  0.2879  0.6632  0.1806
   30SOL    HW1   89   0.587   1.251   0.721  0.6403  0.7014  1.6087
   30SOL    HW2   90   0.620   1.375   0.620 -0.5965 -0.5258 -0.3471
   31SOL     OW   91   1.221   1.174   1.386  0.1613  0.3765 -0.0839
   31SOL    HW1   92   1.206   1.093   1.328  1.7847 -0.2208  0.2623
   31SOL    HW2   93   1.304   1.160   1.440 -0.8250  1.3098  1.7259
   32SOL     OW   94   0.818   0.043   0.502 -0.5039  0.0968  0.2833
   32SOL    HW1   95   0.877   0.116   0.466 -0.1405  0.4159  1.4500
   32SOL    HW2   96   0.723   0.072   0.498 -0.4658  0.1437 -0.3550
   33SOL     OW   97   0.123   0.919   1.246 -0.0560 -0.2515  0.1529
   33SOL    HW1   98   0.218   0.900   1.220 -0.1520 -0.1122 -0.3065
   33SOL    HW2   99   0.063   0.906   1.167 -0.5345 -1.1758  0.6517
   34SOL     OW  100   1.563   1.021   0.224  0.2192  0.6067 -0.3236
   34SOL    HW1  101   1.500   0.944   0.237 -2.6519  2.7384 -0.6311
   34SOL    HW2  102   1.610   1.040   0.310  0.1586 -0.8090  0.0443
   35SOL     OW  103   1.230   0.057   1.614  0.1424 -0.3147  0.4618
   35SOL    HW1  104   1.211   0.125   1.544  0.8030 -0.6506 -0.0555
   35SOL    HW2  105   1.230  -0.034   1.573 -4.1152 -1.0798  1.7091
   36SOL     OW  106   0.355   0.261   1.761 -0.1006  0.6867 -0.5948
   36SOL    HW1  107   0.392   0.353   1.776 -1.2692  0.8458  1.8457
   36SOL    HW2  108   0.265   0.254   1.803  0.6482 -2.0530  0.8164
   37SOL     OW  109   1.443   1.376   0.948 -0.0144 -0.6337  0.6597
   37SOL    HW1  110   1.402   1.396   1.037  0.7824 -1.5823  1.2487
   37SOL    HW2  111   1.385   1.311   0.898  0.5444 -1.6570  1.3220
   38SOL     OW  112   1.678   1.835   0.496  0.0309 -0.1820  0.6631
   38SOL    HW1  113   1.680   1.760   0.430  3.1221  0.0443  0.3680
   38SOL    HW2  114   1.711   1.802   0.585 -0.9495  0.2964  1.2219
   39SOL     OW  115   0.612   0.766   0.280  0.5504 -0.1363  0.2880
   39SOL    HW1  116   0.663   0.836   0.330  0.7849 -0.3821  0.4002
   39SOL    HW2  117   0.524   0.751   0.324  0.6592 -0.1840  0.4941
   40SOL     OW  118   1.241   0.318   0.820  0.1216 -0.0921 -0.3812
   40SOL    HW1  119   1.166   0.262   0.855 -0.3967  0.6007 -0.3490
   40SOL    HW2  120   1.318   0.315   0.884 -0.5584  0.6129  0.4972
   41SOL     OW  121   1.636   1.624   0.326 -0.3295  0.4156  0.2360
   41SOL    HW1  122   1.718   1.578   0.291 -0.5560 -0.3480  0.6969
   41SOL    HW2  123   1.568   1.631   0.252 -0.2109  0.1979  0.1039
   42SOL     OW  124   0.735   0.604   1.429  0.6253  0.2873 -0.0522
   42SOL    HW1  125   0.692   0.564   1.510  0.1420  1.3685  0.2461
   42SOL    HW2  126   0.728   0.540   1.352  1.5382 -0.9581  0.8797
   43SOL     OW  127   1.458   0.518   1.582  0.1401  0.1770 -0.7176
   43SOL    HW1  128   1.532   0.567   1.627  0.7272 -1.0579 -0.2978
   43SOL    HW2  129   1.459   0.422   1.610 -0.7422 -0.1725 -1.7993
   44SOL     OW  130   0.905   0.975   1.611  0.6952  0.5124  0.4035
   44SOL    HW1  131   0.969   0.930   1.549  1.4033 -0.9527  2.1139
   44SOL    HW2  132   0.817   0.986   1.565  1.1986 -0.4922 -0.8684
   45SOL     OW  133   1.006   0.380   1.138 -0.4933 -0.1863 -0.8189
   45SOL    HW1  134   0.915   0.420   1.149 -0.9493 -1.4193  0.1775
   45SOL    HW2  135   0.997   0.288   1.098  0.0379 -1.4006  1.6364
   46SOL     OW  136   1.008   0.721   0.381 -0.2770  0.0505 -0.9173
   46SOL    HW1  137   1.037   0.727   0.477 -0.9837 -1.7745 -0.5537
   46SOL    HW2  138   0.919   0.676   0.376 -0.7789  1.1588 -2.3685
   47SOL     OW  139   0.167   0.786   0.767  0.7437  0.3615  0.5667
   47SOL    HW1  140   0.230   0.781   0.844  0.1068  1.7773  1.2167
   47SOL    HW2  141   0.114   0.871   0.773 -1.6123 -1.0100  0.3727
   48SOL     OW  142   0.090   1.821   1.598 -0.4212  0.2140  0.4530
   48SOL    HW1  143   0.122   1.806   1.691  0.6768  1.2451  0.2755
   48SOL    HW2  144   0.057   1.735   1.559 -0.4824 -0.3105  1.6323
   49SOL     OW  145   0.874   0.358   0.151  0.1249  0.1784  0.3251
   49SOL    HW1  146   0.941   0.423   0.116 -0.9337  0.3240 -1.5697
   49SOL    HW2  147   0.909   0.265   0.142 -1.3370 -0.1592 -4.6665
   50SOL     OW  148   1.701   0.614   1.823 -0.0357 -0.2397  0.6926
   50SOL    HW1  149   1.663   0.683   1.762 -1.9223 -1.9531 -0.1744
   50SOL    HW2  150   1.779   0.570   1.779  0.5019  0.5519  0.8161
   51SOL     OW  151   1.434   1.157   0.606 -0.2557  0.0959 -0.2245
   51SOL    HW1  152   1.493   1.108   0.542 -4.5519 -3.3663 -2.1385
   51SOL    HW2  153   1.390   1.233   0.559 -1.9449 -1.2665 -0.9820
   52SOL     OW  154   0.556   0.076   0.971 -0.2016 -0.8936 -0.0552
   52SOL    HW1  155   0.582   0.101   1.064 -1.4081 -1.2634  0.4049
   52SOL    HW2  156   0.488   0.141   0.936 -2.8106 -2.9388  0.8769
   53SOL     OW  157   1.020   1.436   0.496 -0.2684 -0.0982  0.1632
   53SOL    HW1  158   0.942   1.499   0.487 -0.2484  0.3767  2.6866
   53SOL    HW2  159   1.028   1.406   0.591  1.3743 -1.8288 -0.4599
   54SOL     OW  160   0.385   1.767   0.846 -0.1476  0.6303 -0.0938
   54SOL    HW1  161   0.392   1.667   0.854 -3.5907  0.3878  1.9873
   54SOL    HW2  162   0.463   1.809   0.892  2.4263 -0.9287 -2.6212
   55SOL     OW  163   1.824   0.968   1.047  0.2916  0.1032  0.6228
   55SOL    HW1  164   1.831   0.972   0.947  1.4009  0.9493  0.7211
   55SOL    HW2  165   1.728   0.971   1.073  0.0297  2.6909 -0.3455
   56SOL     OW  166   1.171   1.649   1.526 -0.1888 -0.0006  0.0345
   56SOL    HW1  167   1.198   1.574   1.587  0.8185  1.4482  1.4468
   56SOL    HW2  168   1.072   1.647   1.513 -0.3057 -0.9020  0.9553
   57SOL     OW  169   0.356   0.813   0.097 -0.3720 -0.1355 -0.9073
   57SOL    HW1  170   0.386   0.908   0.107  0.6203 -0.3280 -1.9393
   57SOL    HW2  171   0.294   0.805   0.019 -0.7200 -0.2881 -0.6222
   58SOL     OW  172   1.548   0.797   0.782  0.5098 -0.3556 -0.6272
   58SOL    HW1  173   1.644   0.790   0.808  0.5739  2.0475  0.0735
   58SOL    HW2  174   1.493   0.816   0.863 -0.9218 -3.6131 -0.6826
   59SOL     OW  175   0.449   1.327   1.741 -0.3423  0.2340  0.4076
   59SOL    HW1  176   0.444   1.288   1.649  0.7045  0.1534  0.3735
   59SOL    HW2  177   0.358   1.355   1.770 -1.3156 -2.7792  0.6802
   60SOL     OW  178   1.141   1.740   0.247  0.4512 -0.2985  0.1690
   60SOL    HW1  179   1.135   1.719   0.344  0.5850 -0.0639  0.2295
   60SOL    HW2  180   1.203   1.675   0.202  1.0975  0.1371  0.4091
   61SOL     OW  181   0.177   0.260   1.523  0.6805  0.0736 -0.8399
   61SOL    HW1  182   0.137   0.335   1.576  1.7562  0.7231 -0.9145
   61SOL    HW2  183   0.160   0.174   1.569  0.0109  0.4357 -0.3949
   62SOL     OW  184   1.688   1.276   0.190 -0.1868 -0.1081 -0.0119
   62SOL    HW1  185   1.678   1.253   0.287 -1.4747  1.3503  0.2462
   62SOL    HW2  186   1.613   1.234   0.138 -1.9952  2.4058  0.3241
   63SOL     OW  187   0.548   1.722   0.398  0.2217  0.4075 -0.0074
   63SOL    HW1  188   0.571   1.813   0.431  0.0478  0.2994  0.4183
   63SOL    HW2  189   0.611   1.695   0.325  1.7536 -0.0730  1.4454
   64SOL     OW  190   1.428   0.143   0.419 -0.6320 -0.1455 -0.9489
   64SOL    HW1  191   1.423   0.119   0.322 -1.0892 -0.7248 -0.7948
   64SOL    HW2  192   1.518   0.119   0.455 -0.2157  0.7264 -1.3885
   65SOL     OW  193   0.181   0.043   1.141 -0.2261  0.4871  0.2154
   65SOL    HW1  194   0.213  -0.030   1.201  1.9995  1.1603 -0.0586
   65SOL    HW2  195   0.180   0.009   1.046 -1.2853  0.1913  0.3202
   66SOL     OW  196   0.928   1.621   0.942 -0.7918  0.5920  0.7008
   66SOL    HW1  197   1.026   1.624   0.922 -0.8326  1.1397  0.5702
   66SOL    HW2  198   0.877   1.600   0.859 -0.9089  2.1588  0.3314
   67SOL     OW  199   0.422   0.655   0.463 -0.1483  0.1880 -0.0758
   67SOL    HW1  200   0.475   0.572   0.446 -0.5538 -0.1065  0.0835
   67SOL    HW2  201   0.325   0.633   0.462 -0.3200  0.9337 -1.5410
   68SOL     OW  202   1.590   0.283   1.697 -0.1014 -0.2749  0.0370
   68SOL    HW1  203   1.574   0.330   1.784  0.5756 -0.0367  0.0372
   68SOL    HW2  204   1.567   0.186   1.707  2.8487 -0.9612  1.4406
   69SOL     OW  205   0.668   0.070   0.148 -0.0579 -0.3261  0.4670
   69SOL    HW1  206   0.757   0.027   0.163  0.0286 -0.5473 -0.5608
   69SOL    HW2  207   0.626   0.030   0.066 -1.3682 -0.6482  1.2719
   70SOL     OW  208   0.791   0.260   1.743  0.5206 -0.5713 -0.2880
   70SOL    HW1  209   0.887   0.232   1.748  0.4716 -0.7440 -0.3175
   70SOL    HW2  210   0.742   0.227   1.824  0.7799  0.6502  0.3847
   71SOL     OW  211   0.958   1.586   1.225  0.6013 -0.2921 -0.4808
   71SOL    HW1  212   0.923   1.589   1.131 -2.8228 -0.6687  0.6326
   71SOL    HW2  213   0.966   1.491   1.255 -0.3624 -0.1823  0.2047
   72SOL     OW  214   1.284   0.597   1.400  0.0317 -0.3431 -0.0910
   72SOL    HW1  215   1.352   0.574   1.470  1.7076  1.2896 -1.0914
   72SOL    HW2  216   1.259   0.693   1.408  0.5987 -0.0068 -1.9827
   73SOL     OW  217   0.799   1.316   0.902  0.2496 -0.6223 -0.4534
   73SOL    HW1  218   0.859   1.396   0.897 -0.1108 -0.2644  0.5938
   73SOL    HW2  219   0.724   1.327   0.836 -0.0736  0.1599  0.0206
   74SOL     OW  220   0.889   0.412   0.866  0.3386 -0.8683  0.5694
   74SOL    HW1  221   0.856   0.417   0.772 -1.1228 -0.4404  1.0704
   74SOL    HW2  222   0.932   0.324   0.882  1.6605 -0.5166 -0.8084
   75SOL     OW  223   0.571   0.129   0.519  0.1975 -0.2213  0.6423
   75SOL    HW1  224   0.482   0.113   0.561  0.0959 -0.5692  0.2956
   75SOL    HW2  225   0.587   0.228   0.513 -0.1222 -0.1594  0.7904
   76SOL     OW  226   1.490   1.185   0.016  0.3905  0.0567 -0.1027
   76SOL    HW1  227   1.522   1.103   0.063 -1.7462  0.6375  2.6199
   76SOL    HW2  228   1.418   1.228   0.070  1.9431  4.2080 -0.9933
   77SOL     OW  229   0.362   1.851   0.199  0.0559 -0.5071 -0.2164
   77SOL    HW1  230   0.419   1.772   0.223  0.7410  0.2596  0.7652
   77SOL    HW2  231   0.413   1.935   0.218  0.0135  0.1939 -2.8515
   78SOL     OW  232   0.962   0.260   0.418  0.2778 -0.2638 -0.3420
   78SOL    HW1  233   0.937   0.312   0.336  2.1990  1.3257 -0.0082
   78SOL    HW2  234   1.062   0.255   0.425  0.2037  0.2436  2.2226
   79SOL     OW  235   0.977   0.730   1.407 -0.5881  0.1901  0.1124
   79SOL    HW1  236   0.887   0.692   1.428 -1.2615  1.5093 -0.3132
   79SOL    HW2  237   1.047   0.659   1.420 -1.7104 -0.9406  0.1251
   80SOL     OW  238   1.202   1.647   0.824  0.3416  0.3678  0.8437
   80SOL    HW1  239   1.214   1.683   0.731 -0.5737 -1.4729 -0.0253
   80SOL    HW2  240   1.269   1.690   0.884 -0.4382  3.2353 -0.1574
   81SOL     OW  241   0.480   1.104   0.716  0.0608 -0.5494 -0.1790
   81SOL    HW1  242   0.425   1.090   0.799 -0.6675  0.1976 -0.5179
   81SOL    HW2  243   0.423   1.088   0.636  0.4316 -0.0905 -0.5394
   82SOL     OW  244   1.268   1.813   0.605 -0.1463 -0.2219 -0.0807
   82SOL    HW1  245   1.313   1.901   0.593  0.3360 -0.4167  0.2567
   82SOL    HW2  246   1.170   1.827   0.614  0.0691  0.4485  1.6029
   83SOL     OW  247   0.993   0.558   0.039 -0.4169  0.3387  0.0653
   83SOL    HW1  248   0.939   0.640   0.020 -1.2614 -0.2605 -0.1613
   83SOL    HW2  249   1.055   0.577   0.115 -0.3854  1.2758 -0.1727
   84SOL     OW  250   0.076   0.526   1.423 -0.0494 -0.6329 -0.2758
   84SOL    HW1  251   0.148   0.457   1.410  0.0572 -0.5960  0.0936
   84SOL    HW2  252   0.117   0.611   1.458 -0.2350 -0.5208 -0.3290
   85SOL     OW  253   0.601   0.218   1.233  0.3429 -0.4157  0.3838
   85SOL    HW1  254   0.638   0.196   1.323 -0.3038  3.3078  1.7351
   85SOL    HW2  255   0.501   0.214   1.236  0.3195 -0.4910 -0.2441
   86SOL     OW  256   0.806   0.386   0.621  0.2292 -0.1431  0.5291
   86SOL    HW1  257   0.775   0.458   0.558 -0.4005  1.1828  2.2856
   86SOL    HW2  258   0.858   0.317   0.570 -1.1274  0.3266 -1.6118
   87SOL     OW  259   0.999   0.005   0.717  0.7664 -0.7123 -0.1703
   87SOL    HW1  260   0.914   0.002   0.665 -0.7313  0.9782  2.0219
   87SOL    HW2  261   1.018  -0.086   0.755 -1.5311 -0.6014  1.4416
   88SOL     OW  262   1.285   1.197   0.816  0.0467  0.1786 -0.0243
   88SOL    HW1  263   1.214   1.129   0.829 -0.3691  0.4114 -0.9480
   88SOL    HW2  264   1.336   1.177   0.732  1.2432 -0.1254  0.7442
   89SOL     OW  265   1.384   0.611   1.024 -0.1817 -0.0612 -0.7461
   89SOL    HW1  266   1.310   0.553   1.058  0.1191 -0.1700 -0.2678
   89SOL    HW2  267   1.470   0.586   1.068 -0.2245  1.4180  0.2580
   90SOL     OW  268   0.067   0.814   0.357 -0.0755 -0.4662  0.4742
   90SOL    HW1  269   0.135   0.741   0.353  0.3005 -0.1057  0.1801
   90SOL    HW2  270  -0.021   0.779   0.325  0.1018 -0.7868  0.3288
   91SOL     OW  271   0.547   1.463   0.097 -0.3647 -0.0843 -0.5075
   91SOL    HW1  272   0.476   1.470   0.167  0.7027 -2.7930  0.9655
   91SOL    HW2  273   0.524   1.389   0.034  1.0989 -0.9868 -0.0145
   92SOL     OW  274   1.760   1.330   0.569 -0.4819  0.0210  0.3850
   92SOL    HW1  275   1.833   1.301   0.630  0.2312  1.6003  0.3098
   92SOL    HW2  276   1.690   1.378   0.621 -1.0245 -0.6629  0.3048
   93SOL     OW  277   1.326   0.563   0.034  0.7883  0.1762 -0.0600
   93SOL    HW1  278   1.267   0.552   0.114 -1.2038 -1.0285 -1.5842
   93SOL    HW2  279   1.397   0.492   0.034  1.0658  0.4378  0.8134
   94SOL     OW  280   0.492   0.280   0.203  0.2795 -0.2540 -0.2445
   94SOL    HW1  281   0.548   0.211   0.156 -0.7356 -1.2015 -0.1017
   94SOL    HW2  282   0.491   0.364   0.149 -1.9666 -1.7220 -2.7813
   95SOL     OW  283   1.665   1.174   1.563  0.4758  0.3029 -0.0180
   95SOL    HW1  284   1.737   1.111   1.591  1.5129  1.7080  0.6540
   95SOL    HW2  285   1.692   1.268   1.587 -1.3928  0.9264 -0.1547
   96SOL     OW  286   0.989   1.346   1.331 -0.2434  0.1691 -0.4515
   96SOL    HW1  287   0.910   1.359   1.390 -0.7466  0.7629 -1.2381
   96SOL    HW2  288   1.054   1.284   1.375 -1.0867 -0.2309  0.2499
   97SOL     OW  289   1.607   1.674   1.724  0.3892  0.2962 -0.0842
   97SOL    HW1  290   1.609   1.705   1.629  1.2384 -0.4006 -0.3049
   97SOL    HW2  291   1.616   1.575   1.727  0.6653  0.3363  0.7435
   98SOL     OW  292   1.032   1.155   1.002 -0.5322  0.1320 -0.6540
   98SOL    HW1  293   0.961   1.226   1.008 -1.2287 -0.5524 -0.7226
   98SOL    HW2  294   1.033   1.116   0.910 -1.9826 -1.7842  0.0759
   99SOL     OW  295   1.526   0.994   1.057 -0.1410  0.0339  0.5153
   99SOL    HW1  296   1.527   1.084   1.100  2.5146  1.3994 -2.0277
   99SOL    HW2  297   1.441   0.983   1.005  0.9284  2.8285 -2.1587
  100SOL     OW  298   0.977   0.193   1.365  0.3003 -0.2518  0.2846
  100SOL    HW1  299   1.023   0.134   1.299  0.8929 -0.5350  0.9443
  100SOL    HW2  300   1.043   0.257   1.405 -0.1227  0.1401  0.3709
  101SOL     OW  301   1.027   1.148   1.810 -0.1328 -0.2995  0.0932
  101SOL    HW1  302   0.964   1.208   1.860 -0.3933 -0.4615 -0.0414
  101SOL    HW2  303   0.975   1.090   1.747  0.1522 -0.4246 -0.0266
  102SOL     OW  304   0.729   0.969   0.383  0.4105  0.5206  0.4077
  102SOL    HW1  305   0.712   0.970   0.482 -0.4417 -0.7720  0.2863
  102SOL    HW2  306   0.824   0.998   0.366  0.8002  0.0524  1.6498
  103SOL     OW  307   0.397   0.782   1.228 -0.0859  0.5996  0.2553
  103SOL    HW1  308   0.465   0.824   1.288 -0.6408 -0.0827  1.4097
  103SOL    HW2  309   0.406   0.682   1.234 -1.1322  0.5071  0.3524
  104SOL     OW  310   1.255   0.425   1.196 -0.1491  0.3841  0.3734
  104SOL    HW1  311   1.258   0.510   1.248 -0.0038 -0.6407  2.1067
  104SOL    HW2  312   1.162   0.410   1.161 -0.3033  0.9693  0.5281
  105SOL     OW  313   0.025   1.592   1.457  0.5947  0.3824 -0.3780
  105SOL    HW1  314  -0.021   1.599   1.369  1.4068 -0.7411 -0.9152
  105SOL    HW2  315   0.124   1.593   1.444  0.7491 -1.2480  0.3553
  106SOL     OW  316   0.417   1.041   0.419  0.5895  0.1036 -0.0608
  106SOL    HW1  317   0.404   1.132   0.381  1.0336 -0.1659 -0.8649
  106SOL    HW2  318   0.499   0.999   0.381  2.3808  0.6768  2.8452
  107SOL     OW  319   0.422   0.489   0.807 -0.5708 -0.3234  0.3457
  107SOL    HW1  320   0.420   0.561   0.738 -0.6455  0.2498  0.9389
  107SOL    HW2  321   0.512   0.487   0.851 -0.0454 -1.5890 -0.6819
  108SOL     OW  322   1.278   1.350   0.451 -0.2164 -0.1807  0.4796
  108SOL    HW1  323   1.328   1.436   0.459 -1.2248  0.7888 -2.4589
  108SOL    HW2  324   1.182   1.365   0.474 -0.3107 -0.6460  0.4027
  109SOL     OW  325   1.354   1.391   1.207  1.0616  0.2149 -0.3972
  109SOL    HW1  326   1.376   1.463   1.272 -1.6237  4.5479 -3.6988
  109SOL    HW2  327   1.274   1.341   1.239  1.5086  0.2833  0.8830
  110SOL     OW  328   1.457   0.584   0.476 -0.0350 -0.3189  0.3305
  110SOL    HW1  329   1.380   0.558   0.535 -0.5517  0.1136 -0.1337
  110SOL    HW2  330   1.426   0.655   0.412  0.4526 -0.9482 -0.6157
  111SOL     OW  331   0.304   1.673   1.272 -0.2902  0.3008  0.4486
  111SOL    HW1  332   0.270   1.581   1.249 -1.0530 -0.0935  2.8628
  111SOL    HW2  333   0.403   1.669   1.288 -0.5618 -0.5341  2.2020
  112SOL     OW  334   0.469   0.809   1.597 -0.1785  0.7753 -0.2774
  112SOL    HW1  335   0.456   0.776   1.504 -0.3407  1.1383 -0.3879
  112SOL    HW2  336   0.495   0.733   1.657  0.5783  0.6595 -0.7451
  113SOL     OW  337   1.615   0.813   1.628 -0.2661 -0.2265 -0.4493
  113SOL    HW1  338   1.530   0.866   1.636  0.0848  0.3902 -0.7124
  113SOL    HW2  339   1.663   0.841   1.545  0.8039  0.3410  0.3458
  114SOL     OW  340   1.089   0.194   1.780 -0.6265  0.0032  0.1736
  114SOL    HW1  341   1.120   0.285   1.752 -1.3562 -0.0097 -0.7386
  114SOL    HW2  342   1.130   0.125   1.720 -1.0497 -0.1605  0.0722
  115SOL     OW  343   0.517   0.000   1.786  0.7164  0.4107 -0.2354
  115SOL    HW1  344   0.474  -0.053   1.714  1.5996 -1.3761  0.5039
  115SOL    HW2  345   0.479   0.093   1.786 -1.4989 -0.4323 -1.0073
  116SOL     OW  346   0.648   0.943   1.087  0.1464  0.0381 -0.3783
  116SOL    HW1  347   0.653   1.040   1.111 -2.5335  0.2054 -0.2713
  116SOL    HW2  348   0.642   0.888   1.171 -1.5793  0.0623 -0.4531
  117SOL     OW  349   1.274   0.855   0.986  0.3167 -0.7212 -0.1176
  117SOL    HW1  350   1.240   0.848   0.892  1.4641  0.8037 -0.6744
  117SOL    HW2  351   1.302   0.764   1.018 -1.9448 -1.6277 -0.4791
  118SOL     OW  352   1.179   0.531   0.278  0.4412 -0.2269  0.7181
  118SOL    HW1  353   1.195   0.461   0.348  0.1722 -1.1584 -0.1317
  118SOL    HW2  354   1.130   0.609   0.319 -2.4758 -2.0444  0.9968
  119SOL     OW  355   0.340   0.221   1.274  0.0101 -0.1762 -0.2026
  119SOL    HW1  356   0.278   0.242   1.349  0.6508  0.3864  0.1812
  119SOL    HW2  357   0.294   0.161   1.208 -0.3604 -1.1954  0.9412
  120SOL     OW  358   1.839   1.327   1.291  0.1158 -0.0436 -0.7262
  120SOL    HW1  359   1.912   1.283   1.344  0.7437  2.5017  0.6937
  120SOL    HW2  360   1.764   1.350   1.353 -1.0474 -0.8275 -1.8110
  121SOL     OW  361   0.686   0.561   0.935  0.1460 -0.1002  0.1699
  121SOL    HW1  362   0.770   0.516   0.905  1.1003 -0.3712  2.9489
  121SOL    HW2  363   0.659   0.630   0.868  0.7654 -2.1251 -2.3484
  122SOL     OW  364   1.860   1.000   0.095  0.3211 -0.1099 -0.1847
  122SOL    HW1  365   1.767   0.977   0.123  0.0254  0.0922 -0.9755
  122SOL    HW2  366   1.924   0.938   0.140 -0.2183 -0.4202  0.1691
  123SOL     OW  367   0.332   0.057   0.618  0.0633 -0.3050  0.0452
  123SOL    HW1  368   0.301   0.149   0.640  2.2656  0.5741 -0.2504
  123SOL    HW2  369   0.350   0.006   0.703  0.5099  0.1448  0.2212
  124SOL     OW  370   1.655   0.411   0.327 -0.7957 -0.2621  0.0179
  124SOL    HW1  371   1.720   0.349   0.372 -0.6194  0.7835  1.2714
  124SOL    HW2  372   1.594   0.450   0.395 -0.3309  1.6206 -0.5856
  125SOL     OW  373   1.029   0.664   0.880  0.2260  0.2226 -0.4909
  125SOL    HW1  374   0.997   0.672   0.975  0.9293  0.5508 -0.2765
  125SOL    HW2  375   1.013   0.571   0.847  1.6299 -0.4316  0.5649
  126SOL     OW  376   0.992   1.514   1.719 -0.0607 -0.1400  0.3024
  126SOL    HW1  377   0.942   1.524   1.633 -2.3548 -2.2167  1.2419
  126SOL    HW2  378   1.055   1.436   1.713 -0.9063 -0.8882  0.7046
  127SOL     OW  379   1.737   1.427   1.604 -0.2848 -0.1430  0.2579
  127SOL    HW1  380   1.796   1.487   1.551 -0.4617 -0.6835 -0.5725
  127SOL    HW2  381   1.755   1.440   1.702 -0.2830  1.2072  0.1003
  128SOL     OW  382   0.349   1.014   1.716 -0.2741 -0.3157 -0.5818
  128SOL    HW1  383   0.394   1.087   1.767  0.7024 -0.8477 -0.6577
  128SOL    HW2  384   0.416   0.967   1.659 -1.1713 -0.3340 -1.6606
  129SOL     OW  385   1.489   0.350   0.097 -0.1831 -0.3645 -0.4880
  129SOL    HW1  386   1.423   0.280   0.122  0.4474 -0.6502  0.4408
  129SOL    HW2  387   1.557   0.360   0.170 -0.0792  0.9951 -0.7308
  130SOL     OW  388   1.330   0.830   0.025  1.0252  0.1117  0.1623
  130SOL    HW1  389   1.370   0.738   0.014 -0.7459 -0.6018 -0.7318
  130SOL    HW2  390   1.334   0.878  -0.062 -0.4826 -0.1658 -0.0740
  131SOL     OW  391   1.061   1.389   0.751  0.1205  0.2157  0.1082
  131SOL    HW1  392   1.126   1.314   0.764  2.2021  1.7481 -0.8683
  131SOL    HW2  393   1.095   1.471   0.795 -0.2538  1.5098 -1.8671
  132SOL     OW  394   0.363   0.853   0.957 -0.1181  0.0306  0.3762
  132SOL    HW1  395   0.459   0.855   0.928 -0.0746 -0.0800  0.5090
  132SOL    HW2  396   0.356   0.804   1.044 -0.6046 -2.0673 -0.7925
  133SOL     OW  397   0.217   0.537   0.987 -0.4029 -0.1793  0.1473
  133SOL    HW1  398   0.167   0.452   1.003 -1.3863  0.1116 -1.1836
  133SOL    HW2  399   0.285   0.523   0.915 -0.9833  0.2849 -0.5092
  134SOL     OW  400   0.460   0.574   1.732 -0.4202  0.0730 -0.2922
  134SOL    HW1  401   0.469   0.566   1.831 -0.7367  0.6323 -0.2109
  134SOL    HW2  402   0.537   0.529   1.687  0.2380  0.6614  0.2327
  135SOL     OW  403   1.151   0.448   1.700 -0.0434  1.0871  0.3815
  135SOL    HW1  404   1.063   0.490   1.724 -0.4370 -0.4159  1.7424
  135SOL    HW2  405   1.225   0.496   1.746 -0.4966  0.3120  1.9980
  136SOL     OW  406   1.214   0.310   1.465 -0.3308  0.3885  0.3208
  136SOL    HW1  407   1.188   0.371   1.540 -1.3908  0.0187  0.2601
  136SOL    HW2  408   1.258   0.363   1.393 -1.6252  1.1687  0.0791
  137SOL     OW  409   0.104   1.330   0.229 -0.2001 -0.2878  0.4466
  137SOL    HW1  410   0.022   1.282   0.198 -1.5208  1.5593  0.9121
  137SOL    HW2  411   0.116   1.315   0.327  1.4106 -2.4507 -0.0100
  138SOL     OW  412   0.119   1.796   0.884 -0.0024 -0.0951 -0.1252
  138SOL    HW1  413   0.063   1.716   0.864  0.3956 -0.6069  0.7659
  138SOL    HW2  414   0.215   1.776   0.862 -0.0626  0.5536 -1.0336
  139SOL     OW  415   0.460   1.501   0.905 -0.0152  0.5217 -0.0613
  139SOL    HW1  416   0.537   1.475   0.964 -0.4469 -1.6441 -0.3920
  139SOL    HW2  417   0.462   1.446   0.822 -2.8679 -0.8853  0.6864
  140SOL     OW  418   1.000   0.742   1.130  0.8166 -0.6456 -0.6597
  140SOL    HW1  419   1.066   0.811   1.160 -0.2980  0.9861 -1.8108
  140SOL    HW2  420   0.942   0.716   1.208  1.8984 -1.0728  0.0227
  141SOL     OW  421   0.043   0.650   1.150  0.0744 -0.5975  0.3987
  141SOL    HW1  422   0.127   0.610   1.113 -1.7425 -2.9158 -1.5004
  141SOL    HW2  423   0.054   0.665   1.248  2.9091 -0.1789  0.0860
  142SOL     OW  424   0.169   0.638   1.775 -0.0567  0.0420  0.2773
  142SOL    HW1  425   0.248   0.582   1.748  0.6071  0.4472  1.3115
  142SOL    HW2  426   0.144   0.699   1.699  1.9645  1.3927  0.6086
  143SOL     OW  427   1.365   0.961   1.644  0.1094  0.4223 -0.0673
  143SOL    HW1  428   1.371   1.061   1.652  1.0559  0.2306  2.1152
  143SOL    HW2  429   1.325   0.938   1.555  2.1606  2.6851 -1.7466
  144SOL     OW  430   0.801   0.548   0.352  0.3453  0.0658  0.4370
  144SOL    HW1  431   0.803   0.479   0.281 -0.2732 -1.1770  1.5910
  144SOL    HW2  432   0.733   0.618   0.330  3.8507  2.8590 -2.9392
  145SOL     OW  433   1.640   0.581   1.157  0.2310 -0.1314  0.1021
  145SOL    HW1  434   1.622   0.510   1.226 -1.6191  1.2096  1.0837
  145SOL    HW2  435   1.737   0.578   1.132  0.3579 -2.5911  0.5341
  146SOL     OW  436   0.259   1.551   1.696 -0.1472 -0.8844 -0.7065
  146SOL    HW1  437   0.242   1.633   1.751  0.3143 -0.4545 -1.1923
  146SOL    HW2  438   0.236   1.470   1.749 -0.9374 -0.4294 -0.3366
  147SOL     OW  439   0.744   0.450   1.202 -0.4753  0.2703 -0.6506
  147SOL    HW1  440   0.698   0.363   1.222 -1.3950  0.6740 -0.9646
  147SOL    HW2  441   0.715   0.483   1.112 -2.2471  2.2138  0.5357
  148SOL     OW  442   0.898   1.607   1.491 -0.5611 -0.1333  0.0164
  148SOL    HW1  443   0.933   1.619   1.399 -0.5419  0.7004  0.1249
  148SOL    HW2  444   0.814   1.660   1.502 -0.2482  0.2381  0.6523
  149SOL     OW  445   0.414   0.521   0.128 -0.0200 -0.0950 -0.4714
  149SOL    HW1  446   0.429   0.616   0.156 -0.2586  0.1412 -1.1325
  149SOL    HW2  447   0.324   0.491   0.158  0.3595 -0.3774  0.4287
  150SOL     OW  448   0.156   1.163   1.417  0.2257  0.1757  0.4099
  150SOL    HW1  449   0.116   1.155   1.508 -0.0432 -0.9502  0.1995
  150SOL    HW2  450   0.123   1.089   1.359  2.2573 -0.5237  0.0872
  151SOL     OW  451   1.147   0.995   1.185  0.2693  0.2567 -0.5170
  151SOL    HW1  452   1.185   0.925   1.124  0.5532  1.0610 -1.2808
  151SOL    HW2  453   1.108   1.069   1.130  1.1215  1.3225  0.2825
  152SOL     OW  454   1.363   0.806   0.316  0.5471  0.0866  0.2047
  152SOL    HW1  455   1.274   0.843   0.342 -0.1020 -1.7437  0.7549
  152SOL    HW2  456   1.357   0.769   0.223 -0.0984 -2.3351  1.1194
  153SOL     OW  457   1.788   1.659   1.209 -0.0773  0.7323 -0.4190
  153SOL    HW1  458   1.744   1.735   1.162 -0.8830  0.0047 -0.8736
  153SOL    HW2  459   1.765   1.574   1.163 -2.4658 -0.2586  2.2968
  154SOL     OW  460   1.241   1.796   1.154 -0.3944  0.5547  0.0773
  154SOL    HW1  461   1.299   1.835   1.083 -1.6152  0.0843 -1.2384
  154SOL    HW2  462   1.277   1.707   1.183 -0.0003  0.6557 -0.1112
  155SOL     OW  463   0.109   1.199   1.108 -0.1777  0.1982 -0.0933
  155SOL    HW1  464   0.053   1.249   1.174  0.6130 -1.1425  1.6567
  155SOL    HW2  465   0.053   1.128   1.065 -0.5809  0.8133 -0.6294
  156SOL     OW  466   0.879   1.727   0.027 -0.0481  0.2305  0.0904
  156SOL    HW1  467   0.954   1.760   0.083 -0.1937 -2.3623  1.9900
  156SOL    HW2  468   0.913   1.701  -0.063  0.6874  1.9948 -0.1760
  157SOL     OW  469   0.987   0.110   0.149  0.3794  0.4163  0.0328
  157SOL    HW1  470   1.028   0.135   0.061 -0.0571  0.7772 -0.0706
  157SOL    HW2  471   1.046   0.044   0.195 -0.2716 -1.2010 -1.3481
  158SOL     OW  472   1.819   0.220   0.427 -0.6045  0.0561 -0.6286
  158SOL    HW1  473   1.886   0.201   0.355  0.1872 -0.5469  0.2494
  158SOL    HW2  474   1.775   0.135   0.455  0.0931  0.0603  0.5551
  159SOL     OW  475   1.398   1.585   0.523  0.2866  0.2216 -0.1689
  159SOL    HW1  476   1.481   1.612   0.474  0.2669 -1.0746 -0.9348
  159SOL    HW2  477   1.357   1.667   0.564  0.5206  1.2889 -1.9427
  160SOL     OW  478   0.195   1.750   0.007 -0.1203 -0.1337 -0.0069
  160SOL    HW1  479   0.143   1.705   0.080  0.7269 -0.2171  0.5673
  160SOL    HW2  480   0.274   1.798   0.047  0.7151 -0.6966 -0.9191
  161SOL     OW  481   1.323   0.923   0.689  0.0461  0.0370  0.8561
  161SOL    HW1  482   1.402   0.862   0.696 -0.9916 -1.4606  0.2506
  161SOL    HW2  483   1.351   1.009   0.647  1.2668 -0.6811  0.1176
  162SOL     OW  484   0.724   1.363   1.517  0.4238 -0.4683 -0.0182
  162SOL    HW1  485   0.727   1.420   1.600  3.8552 -0.5034  0.0171
  162SOL    HW2  486   0.660   1.404   1.452 -1.7327  0.0319  2.2552
  163SOL     OW  487   0.728   1.617   0.229  0.4928 -0.7148 -0.2077
  163SOL    HW1  488   0.776   1.677   0.164 -0.8190  0.0369 -0.5206
  163SOL    HW2  489   0.674   1.550   0.178 -1.3540  0.5142  0.0149
  164SOL     OW  490   1.579   1.777   1.466  0.3119 -0.4935  0.0473
  164SOL    HW1  491   1.664   1.807   1.422 -0.1188  0.6045 -0.0825
  164SOL    HW2  492   1.513   1.852   1.462 -0.9731 -1.6345 -0.6688
  165SOL     OW  493   1.761   1.857   1.027 -0.7505 -0.4945 -0.2591
  165SOL    HW1  494   1.842   1.818   0.983  0.4785  1.1105  0.4715
  165SOL    HW2  495   1.721   1.928   0.969 -0.6882 -0.1991  0.0534
  166SOL     OW  496   0.262   0.299   0.681  0.0831 -0.3760 -0.3042
  166SOL    HW1  497   0.166   0.327   0.684  0.4991  1.0993  1.8621
  166SOL    HW2  498   0.318   0.368   0.728  1.9914 -2.0382 -0.0151
  167SOL     OW  499   1.251   1.537   0.084  0.3430 -0.2841 -0.7481
  167SOL    HW1  500   1.269   1.445   0.119  1.6383 -0.1111 -0.9073
  167SOL    HW2  501   1.229   1.532  -0.013 -1.8964 -0.6310 -0.2618
  168SOL     OW  502   0.742   1.101   1.412  0.1419 -0.0801  0.0016
  168SOL    HW1  503   0.762   1.130   1.318  0.5412  0.6640  0.3145
  168SOL    HW2  504   0.734   1.181   1.471  2.3443 -0.6045  1.1018
  169SOL     OW  505   1.004   1.037   0.346 -0.4598  0.3875  0.1779
  169SOL    HW1  506   1.056   1.029   0.260 -2.9465 -0.8398 -1.3314
  169SOL    HW2  507   1.019   0.955   0.401  0.9997  1.0965  0.8885
  170SOL     OW  508   1.487   1.686   0.106  0.2007  0.1392 -0.0337
  170SOL    HW1  509   1.398   1.642   0.089 -0.5951  1.1617  1.3313
  170SOL    HW2  510   1.537   1.692   0.020 -1.4240  0.3436 -1.0196
  171SOL     OW  511   0.426   1.211   1.495  0.3075 -0.3161  0.1111
  171SOL    HW1  512   0.476   1.233   1.412 -1.3921  0.8912 -0.6644
  171SOL    HW2  513   0.328   1.203   1.474  0.1787 -3.5793  1.3416
  172SOL     OW  514   1.521   1.135   1.307  0.1682 -0.2534  0.4771
  172SOL    HW1  515   1.537   1.097   1.398  0.5196  1.5863  1.2066
  172SOL    HW2  516   1.463   1.216   1.314 -0.0611 -0.2629 -0.9872
  173SOL     OW  517   1.042   1.032   0.760 -0.0611  0.3617  0.3387
  173SOL    HW1  518   0.990   0.954   0.794 -1.2917  1.0066  0.0013
  173SOL    HW2  519   1.078   1.011   0.669  0.0903 -0.0186  0.4868
  174SOL     OW  520   1.028   0.143   0.946  0.2126  0.0169  0.1368
  174SOL    HW1  521   1.014   0.100   0.857 -1.1006  2.7109 -1.0643
  174SOL    HW2  522   0.989   0.085   1.018 -0.1403 -1.4508 -1.1950
  175SOL     OW  523   0.575   1.406   0.445  0.3232 -0.1383 -0.1185
  175SOL    HW1  524   0.652   1.372   0.392 -0.6678 -2.2167 -0.3058
  175SOL    HW2  525   0.550   1.497   0.413  3.1010  0.9099  0.4232
  176SOL     OW  526   1.685   0.368   1.343 -0.0133 -0.1629 -0.1039
  176SOL    HW1  527   1.759   0.428   1.374 -1.2211  1.5928 -0.4633
  176SOL    HW2  528   1.721   0.277   1.323  1.5438 -0.1438  2.3204
  177SOL     OW  529   0.335   1.466   0.251 -0.1377 -0.1039  0.0213
  177SOL    HW1  530   0.241   1.446   0.225 -0.0247  0.7031 -1.0495
  177SOL    HW2  531   0.352   1.430   0.343 -1.5731  0.0118  0.3567
  178SOL     OW  532   0.078   1.079   1.695  0.2031 -0.3500 -0.4251
  178SOL    HW1  533   0.019   1.049   1.770 -0.2176  0.0430 -0.5945
  178SOL    HW2  534   0.172   1.050   1.713  0.3750  0.9532  0.9269
  179SOL     OW  535   0.728   0.158   1.471  0.2192  0.2345  0.2353
  179SOL    HW1  536   0.815   0.166   1.423 -1.1541 -0.4863 -2.5892
  179SOL    HW2  537   0.718   0.235   1.535  1.3701  2.4916 -2.0980
  180SOL     OW  538   0.105   0.258   0.010  0.1259  0.0456 -0.3166
  180SOL    HW1  539   0.071   0.300  -0.074  1.2957  0.7991 -0.4389
  180SOL    HW2  540   0.107   0.327   0.083  0.6255 -0.1726 -0.1166
  181SOL     OW  541   1.279   0.883   1.400  0.0201  0.4411  0.1126
  181SOL    HW1  542   1.212   0.910   1.331 -0.3811  0.8837  0.6649
  181SOL    HW2  543   1.368   0.867   1.357 -0.4025 -0.0187 -0.6103
  182SOL     OW  544   0.102   0.096   0.237  0.5021 -0.0630 -0.0280
  182SOL    HW1  545   0.078   0.137   0.149  0.5648 -0.8653 -0.4254
  182SOL    HW2  546   0.199   0.071   0.238  0.2458 -1.1315 -0.1836
  183SOL     OW  547   1.289   1.244   0.206  0.2765  0.1368  0.2264
  183SOL    HW1  548   1.243   1.156   0.206  0.8149 -0.1821  1.7604
  183SOL    HW2  549   1.273   1.290   0.294 -0.3196  1.7499 -0.6950
  184SOL     OW  550   0.623   0.865   1.358 -0.3398  0.0718  0.3942
  184SOL    HW1  551   0.658   0.946   1.406  0.0216 -0.4940  1.0916
  184SOL    HW2  552   0.663   0.783   1.396  1.0083 -0.3560 -1.7743
  185SOL     OW  553   1.407   1.810   0.951 -0.1227  0.0960 -0.2614
  185SOL    HW1  554   1.445   1.903   0.951 -2.9659  1.3452 -0.2962
  185SOL    HW2  555   1.482   1.744   0.961  1.9647  2.3569  0.0618
  186SOL     OW  556   0.726   0.518   1.692 -0.2148 -0.1705 -0.4369
  186SOL    HW1  557   0.757   0.592   1.751 -1.6686  0.3894 -0.3504
  186SOL    HW2  558   0.773   0.433   1.718  2.0675  0.8119 -1.0466
  187SOL     OW  559   1.425   1.245   1.626 -0.1507  0.1957  0.4872
  187SOL    HW1  560   1.434   1.239   1.725  0.9123  0.0912  0.3932
  187SOL    HW2  561   1.515   1.233   1.583 -0.7885 -1.0949 -0.5515
  188SOL     OW  562   0.411   1.754   1.566  0.4255 -0.3547 -0.8029
  188SOL    HW1  563   0.340   1.795   1.509  1.0699 -0.3051 -1.5817
  188SOL    HW2  564   0.375   1.669   1.607 -0.4432  0.2426 -0.2895
  189SOL     OW  565   1.542   0.814   1.262 -0.4444  0.2264  0.3109
  189SOL    HW1  566   1.557   0.719   1.236 -0.0808 -0.0176  1.3703
  189SOL    HW2  567   1.551   0.872   1.181 -0.2745 -0.5980 -0.2731
  190SOL     OW  568   1.221   0.324   0.488 -0.3140  0.6354  0.1725
  190SOL    HW1  569   1.309   0.276   0.484 -1.1578 -0.9808 -0.1138
  190SOL    HW2  570   1.211   0.368   0.577  0.7311  0.7469  0.2479
  191SOL     OW  571   0.572   0.731   0.659  0.3581 -0.5080 -0.5287
  191SOL    HW1  572   0.611   0.822   0.649 -2.0632  0.6284 -0.5141
  191SOL    HW2  573   0.518   0.709   0.578  0.5727 -1.7768 -0.3535
  192SOL     OW  574   1.845   0.409   1.663 -0.3594 -0.4192 -0.0436
  192SOL    HW1  575   1.856   0.480   1.593  0.6270 -1.2151 -0.7447
  192SOL    HW2  576   1.753   0.371   1.658 -0.8711  0.7489  0.2918
  193SOL     OW  577   1.770   0.845   1.391  0.2993  0.1020 -0.2203
  193SOL    HW1  578   1.832   0.898   1.334 -1.9493  0.9108 -2.0829
  193SOL    HW2  579   1.684   0.829   1.341 -0.5776 -1.9781  1.7608
  194SOL     OW  580   0.818   1.336   1.848 -0.0933  0.3489 -0.5428
  194SOL    HW1  581   0.806   1.355   1.945  3.0378  1.0480 -0.1696
  194SOL    HW2  582   0.850   1.419   1.802  2.8324 -1.0163 -1.1931
  195SOL     OW  583   0.725   1.765   1.061 -0.0131  0.1835 -0.0863
  195SOL    HW1  584   0.687   1.827   0.993 -0.3935 -0.5541 -0.5625
  195SOL    HW2  585   0.802   1.715   1.020  0.0692  0.0908  0.1810
  196SOL     OW  586   1.461   0.050   1.776  0.3434 -0.4843 -0.7735
  196SOL    HW1  587   1.377   0.047   1.722  0.9340 -0.2516 -1.7112
  196SOL    HW2  588   1.514  -0.033   1.760  0.4305 -0.5056 -0.3899
  197SOL     OW  589   0.824   0.855   0.859 -0.6360  0.9028 -0.2470
  197SOL    HW1  590   0.874   0.769   0.858 -2.7877 -0.4484  0.3505
  197SOL    HW2  591   0.813   0.886   0.953 -0.4093  1.4973 -0.4152
  198SOL     OW  592   1.163   1.005   0.154  0.1141  0.6184 -0.1482
  198SOL    HW1  593   1.098   1.039   0.086  1.1373  1.5159 -0.7138
  198SOL    HW2  594   1.219   0.934   0.113  0.0112  0.3974  0.0949
  199SOL     OW  595   1.816   1.560   0.833 -0.0433  0.2412  0.2924
  199SOL    HW1  596   1.760   1.511   0.766  0.8055 -1.2303  0.6069
  199SOL    HW2  597   1.782   1.542   0.925  1.9115 -2.2051  0.6585
  200SOL     OW  598   0.196   1.303   1.814  0.1840  0.5416  0.3318
  200SOL    HW1  599   0.130   1.252   1.759  0.3634  2.1415 -1.4856
  200SOL    HW2  600   0.170   1.299   1.911 -0.4055 -1.9863  0.1221
  201SOL     OW  601   0.096   1.209   0.697 -0.4153  0.6212 -0.1034
  201SOL    HW1  602   0.154   1.168   0.769  1.0181  0.7846 -1.1264
  201SOL    HW2  603   0.091   1.146   0.620 -2.2333  0.3009  0.2395
  202SOL     OW  604   0.633   1.527   1.710  0.2751 -0.0789 -0.3014
  202SOL    HW1  605   0.569   1.454   1.686  0.0583  0.2833 -0.8469
  202SOL    HW2  606   0.628   1.543   1.809  0.6798 -1.1241 -0.0936
  203SOL     OW  607   1.797   0.090   1.280 -0.1218  0.1183 -0.0922
  203SOL    HW1  608   1.885   0.074   1.325  0.6844  0.3749 -1.4965
  203SOL    HW2  609   1.801   0.054   1.187 -0.7754  1.9455 -0.8642
  204SOL     OW  610   0.437   0.403   0.446 -0.2224  0.0467  0.1558
  204SOL    HW1  611   0.450   0.350   0.363 -0.8132  2.4591 -1.5669
  204SOL    HW2  612   0.367   0.359   0.503  0.8899 -2.1597 -0.0798
  205SOL     OW  613   1.704   1.457   1.060 -0.5753  0.3239  0.1968
  205SOL    HW1  614   1.611   1.422   1.053 -0.3756 -0.0613 -0.8221
  205SOL    HW2  615   1.754   1.405   1.130 -0.8473 -0.1285  0.0623
  206SOL     OW  616   0.328   0.506   1.232  0.0308 -0.3175  0.1750
  206SOL    HW1  617   0.309   0.408   1.242 -1.7611  0.0817  1.1609
  206SOL    HW2  618   0.293   0.538   1.143 -2.5911  0.0360  1.2248
  207SOL     OW  619   0.772   1.593   0.727 -0.1576  0.2824  0.0488
  207SOL    HW1  620   0.782   1.586   0.628  1.1047  0.2337  0.1628
  207SOL    HW2  621   0.678   1.569   0.753 -0.2481 -0.6323 -1.0498
  208SOL     OW  622   1.472   0.184   1.122  0.3540  0.2351 -0.0108
  208SOL    HW1  623   1.504   0.150   1.210 -3.4983 -3.4286  0.2780
  208SOL    HW2  624   1.408   0.259   1.136  0.4139  0.2435  0.2156
  209SOL     OW  625   0.980   0.002   1.161 -0.1806 -0.9637  0.2401
  209SOL    HW1  626   0.914  -0.056   1.209 -0.0289 -0.8661  0.5657
  209SOL    HW2  627   1.072  -0.019   1.192 -0.2550  0.7355  1.7504
  210SOL     OW  628   0.760   1.246   0.281 -0.2696 -0.2638 -0.4620
  210SOL    HW1  629   0.722   1.154   0.277  1.5186 -1.0347 -0.4836
  210SOL    HW2  630   0.849   1.244   0.326  0.4320  1.2369 -1.6744
  211SOL     OW  631   0.594   1.667   1.280 -0.3311  0.4234  0.4153
  211SOL    HW1  632   0.630   1.708   1.364 -2.0930  0.5111  1.1735
  211SOL    HW2  633   0.641   1.706   1.201  0.6064  1.1431  1.2942
  212SOL     OW  634   1.353   0.095   0.150  0.4987  0.1932 -0.3386
  212SOL    HW1  635   1.387   0.069   0.060  0.0213 -0.7571 -0.2581
  212SOL    HW2  636   1.283   0.029   0.180  0.9681  0.2357  0.9108
  213SOL     OW  637   1.320   0.562   0.719  0.2002 -0.5561  0.1070
  213SOL    HW1  638   1.391   0.590   0.783  1.0711 -2.7559  0.1984
  213SOL    HW2  639   1.267   0.487   0.759 -0.6498 -0.5178 -0.9046
  214SOL     OW  640   1.667   0.244   0.882 -0.0446  0.2244  0.5407
  214SOL    HW1  641   1.630   0.257   0.973  1.6198  0.5693  1.1956
  214SOL    HW2  642   1.660   0.330   0.830  1.2544  0.7740  1.2215
  215SOL     OW  643   0.105   1.057   0.477 -0.2275 -0.1854 -0.2852
  215SOL    HW1  644   0.182   1.076   0.416 -0.0447 -4.0455 -1.5262
  215SOL    HW2  645   0.068   0.966   0.457 -3.8495  0.6479  1.6527
  216SOL     OW  646   0.849   1.643   0.462 -0.1251 -0.2061 -0.2150
  216SOL    HW1  647   0.807   1.621   0.375 -0.0849  0.5008 -0.4214
  216SOL    HW2  648   0.850   1.742   0.475  0.7622 -0.2471  0.1423
   1.86206   1.86206   1.86206
