SPC/E water
  648
    1SOL     OW    1   0.230   0.628   0.113
    1SOL    HW1    2   0.137   0.626   0.150
    1SOL    HW2    3   0.231   0.589   0.021
    2SOL     OW    4   0.225   0.275   0.996
    2SOL    HW1    5   0.260   0.258   1.088
    2SOL    HW2    6   0.137   0.230   0.984
    3SOL     OW    7   0.019   0.368   0.647
    3SOL    HW1    8  -0.063   0.411   0.686
    3SOL    HW2    9  -0.009   0.295   0.584
    4SOL     OW   10   0.569   1.275   1.165
    4SOL    HW1   11   0.476   1.268   1.128
    4SOL    HW2   12   0.580   1.364   1.209
    5SOL     OW   13   1.555   1.511   0.703
    5SOL    HW1   14   1.498   1.495   0.784
    5SOL    HW2   15   1.496   1.521   0.623
    6SOL     OW   16   1.743   0.618   0.856
    6SOL    HW1   17   1.776   0.712   0.856
    6SOL    HW2   18   1.794   0.564   0.922
    7SOL     OW   19   1.135   0.703   0.717
    7SOL    HW1   20   1.192   0.781   0.692
    7SOL    HW2   21   1.075   0.729   0.793
    8SOL     OW   22   1.755   0.607   0.231
    8SOL    HW1   23   1.743   0.594   0.132
    8SOL    HW2   24   1.725   0.526   0.280
    9SOL     OW   25   0.768   1.144   1.023
    9SOL    HW1   26   0.690   1.161   1.083
    9SOL    HW2   27   0.802   1.231   0.987
   10SOL     OW   28   0.850   0.798   1.823
   10SOL    HW1   29   0.846   0.874   1.888
   10SOL    HW2   30   0.872   0.834   1.732
   11SOL     OW   31   0.685   1.012   0.665
   11SOL    HW1   32   0.754   0.996   0.735
   11SOL    HW2   33   0.612   1.069   0.703
   12SOL     OW   34   0.686   1.161   1.803
   12SOL    HW1   35   0.746   1.240   1.817
   12SOL    HW2   36   0.600   1.192   1.762
   13SOL     OW   37   0.335   1.435   1.061
   13SOL    HW1   38   0.257   1.404   1.008
   13SOL    HW2   39   0.393   1.493   1.004
   14SOL     OW   40   1.460   1.505   1.339
   14SOL    HW1   41   1.484   1.599   1.365
   14SOL    HW2   42   1.444   1.451   1.421
   15SOL     OW   43   0.438   0.392   1.499
   15SOL    HW1   44   0.520   0.336   1.508
   15SOL    HW2   45   0.357   0.334   1.503
   16SOL     OW   46   1.603   0.447   0.737
   16SOL    HW1   47   1.529   0.493   0.687
   16SOL    HW2   48   1.654   0.515   0.790
   17SOL     OW   49   0.231   1.713   0.483
   17SOL    HW1   50   0.265   1.790   0.537
   17SOL    HW2   51   0.275   1.713   0.393
   18SOL     OW   52   1.127   1.341   1.690
   18SOL    HW1   53   1.174   1.341   1.778
   18SOL    HW2   54   1.079   1.254   1.679
   19SOL     OW   55   0.230   1.434   0.538
   19SOL    HW1   56   0.204   1.530   0.538
   19SOL    HW2   57   0.159   1.380   0.583
   20SOL     OW   58   0.240   1.091   0.886
   20SOL    HW1   59   0.254   1.007   0.938
   20SOL    HW2   60   0.185   1.155   0.941
   21SOL     OW   61   0.620   1.786   1.439
   21SOL    HW1   62   0.528   1.769   1.474
   21SOL    HW2   63   0.648   1.878   1.465
   22SOL     OW   64   0.606   0.964   0.123
   22SOL    HW1   65   0.613   1.048   0.069
   22SOL    HW2   66   0.652   0.977   0.211
   23SOL     OW   67   1.594   0.114   1.480
   23SOL    HW1   68   1.576   0.181   1.408
   23SOL    HW2   69   1.591   0.160   1.569
   24SOL     OW   70   0.122   0.643   0.563
   24SOL    HW1   71   0.077   0.555   0.580
   24SOL    HW2   72   0.121   0.697   0.647
   25SOL     OW   73   1.842   1.767   0.359
   25SOL    HW1   74   1.896   1.738   0.439
   25SOL    HW2   75   1.872   1.857   0.330
   26SOL     OW   76   0.027   1.596   0.117
   26SOL    HW1   77   0.008   1.500   0.138
   26SOL    HW2   78  -0.006   1.654   0.192
   27SOL     OW   79   1.689   0.922   0.612
   27SOL    HW1   80   1.784   0.893   0.620
   27SOL    HW2   81   1.681   0.987   0.537
   28SOL     OW   82   1.641   1.108   0.432
   28SOL    HW1   83   1.727   1.110   0.380
   28SOL    HW2   84   1.655   1.155   0.520
   29SOL     OW   85   0.113   0.737   1.597
   29SOL    HW1   86   0.201   0.724   1.642
   29SOL    HW2   87   0.100   0.834   1.575
   30SOL     OW   88   0.613   1.365   0.726
   30SOL    HW1   89   0.564   1.278   0.735
   30SOL    HW2   90   0.590   1.408   0.639
   31SOL     OW   91   1.293   1.228   1.423
   31SOL    HW1   92   1.330   1.155   1.365
   31SOL    HW2   93   1.345   1.233   1.508
   32SOL     OW   94   0.809   0.004   0.502
   32SOL    HW1   95   0.849   0.095   0.493
   32SOL    HW2   96   0.709   0.012   0.508
   33SOL     OW   97   0.197   0.976   1.264
   33SOL    HW1   98   0.286   0.931   1.250
   33SOL    HW2   99   0.124   0.911   1.245
   34SOL     OW  100   1.525   0.999   0.190
   34SOL    HW1  101   1.462   0.923   0.203
   34SOL    HW2  102   1.573   1.017   0.276
   35SOL     OW  103   1.187   1.792   1.616
   35SOL    HW1  104   1.211   1.852   1.540
   35SOL    HW2  105   1.194   1.697   1.586
   36SOL     OW  106   0.317   0.251   1.801
   36SOL    HW1  107   0.388   0.322   1.807
   36SOL    HW2  108   0.229   0.290   1.829
   37SOL     OW  109   1.466   1.417   0.953
   37SOL    HW1  110   1.407   1.423   1.033
   37SOL    HW2  111   1.451   1.329   0.907
   38SOL     OW  112   1.667   1.714   0.572
   38SOL    HW1  113   1.626   1.691   0.484
   38SOL    HW2  114   1.649   1.640   0.637
   39SOL     OW  115   0.598   0.729   0.270
   39SOL    HW1  116   0.622   0.798   0.202
   39SOL    HW2  117   0.520   0.762   0.324
   40SOL     OW  118   1.281   0.345   0.944
   40SOL    HW1  119   1.195   0.295   0.931
   40SOL    HW2  120   1.343   0.291   1.000
   41SOL     OW  121   1.576   1.662   0.307
   41SOL    HW1  122   1.665   1.708   0.310
   41SOL    HW2  123   1.555   1.638   0.212
   42SOL     OW  124   0.807   0.605   1.465
   42SOL    HW1  125   0.760   0.602   1.554
   42SOL    HW2  126   0.756   0.550   1.399
   43SOL     OW  127   1.394   0.469   1.674
   43SOL    HW1  128   1.374   0.512   1.762
   43SOL    HW2  129   1.472   0.407   1.683
   44SOL     OW  130   0.973   0.890   1.572
   44SOL    HW1  131   1.019   0.806   1.543
   44SOL    HW2  132   0.917   0.924   1.497
   45SOL     OW  133   0.991   0.410   1.242
   45SOL    HW1  134   0.914   0.444   1.296
   45SOL    HW2  135   0.957   0.359   1.163
   46SOL     OW  136   1.041   0.701   0.429
   46SOL    HW1  137   1.067   0.697   0.525
   46SOL    HW2  138   0.956   0.650   0.415
   47SOL     OW  139   0.076   0.811   0.789
   47SOL    HW1  140   0.175   0.799   0.798
   47SOL    HW2  141   0.052   0.906   0.810
   48SOL     OW  142   0.130   1.821   1.571
   48SOL    HW1  143   0.120   1.806   1.670
   48SOL    HW2  144   0.044   1.857   1.535
   49SOL     OW  145   0.865   0.348   0.195
   49SOL    HW1  146   0.924   0.411   0.146
   49SOL    HW2  147   0.884   0.254   0.166
   50SOL     OW  148   1.719   0.585   1.831
   50SOL    HW1  149   1.693   0.674   1.795
   50SOL    HW2  150   1.717   0.517   1.758
   51SOL     OW  151   1.362   1.144   0.545
   51SOL    HW1  152   1.445   1.115   0.497
   51SOL    HW2  153   1.313   1.211   0.489
   52SOL     OW  154   0.550   0.196   0.885
   52SOL    HW1  155   0.545   0.191   0.985
   52SOL    HW2  156   0.552   0.292   0.856
   53SOL     OW  157   1.008   1.456   0.477
   53SOL    HW1  158   0.962   1.528   0.425
   53SOL    HW2  159   1.004   1.476   0.575
   54SOL     OW  160   0.351   1.801   0.853
   54SOL    HW1  161   0.401   1.715   0.859
   54SOL    HW2  162   0.416   1.878   0.850
   55SOL     OW  163   1.795   1.066   0.873
   55SOL    HW1  164   1.733   1.051   0.797
   55SOL    HW2  165   1.743   1.077   0.958
   56SOL     OW  166   1.227   1.550   1.507
   56SOL    HW1  167   1.233   1.473   1.570
   56SOL    HW2  168   1.175   1.524   1.426
   57SOL     OW  169   0.321   0.943   0.242
   57SOL    HW1  170   0.403   0.982   0.200
   57SOL    HW2  171   0.294   0.861   0.193
   58SOL     OW  172   1.458   0.735   0.728
   58SOL    HW1  173   1.453   0.670   0.803
   58SOL    HW2  174   1.538   0.794   0.741
   59SOL     OW  175   0.461   1.266   1.727
   59SOL    HW1  176   0.411   1.267   1.641
   59SOL    HW2  177   0.398   1.248   1.803
   60SOL     OW  178   1.111   1.776   0.237
   60SOL    HW1  179   1.051   1.714   0.287
   60SOL    HW2  180   1.142   1.732   0.152
   61SOL     OW  181   0.202   0.285   1.498
   61SOL    HW1  182   0.122   0.345   1.485
   61SOL    HW2  183   0.192   0.236   1.584
   62SOL     OW  184   1.632   1.377   0.081
   62SOL    HW1  185   1.600   1.471   0.071
   62SOL    HW2  186   1.556   1.314   0.069
   63SOL     OW  187   0.464   1.743   0.323
   63SOL    HW1  188   0.497   1.782   0.409
   63SOL    HW2  189   0.540   1.736   0.258
   64SOL     OW  190   1.400   0.107   0.426
   64SOL    HW1  191   1.376   0.070   0.336
   64SOL    HW2  192   1.499   0.123   0.430
   65SOL     OW  193   0.249   1.785   1.241
   65SOL    HW1  194   0.306   1.720   1.291
   65SOL    HW2  195   0.233   1.752   1.148
   66SOL     OW  196   0.940   1.698   0.904
   66SOL    HW1  197   1.020   1.641   0.925
   66SOL    HW2  198   0.891   1.658   0.827
   67SOL     OW  199   0.382   0.700   0.480
   67SOL    HW1  200   0.427   0.610   0.477
   67SOL    HW2  201   0.288   0.689   0.513
   68SOL     OW  202   1.547   0.222   1.729
   68SOL    HW1  203   1.542   0.259   1.821
   68SOL    HW2  204   1.475   0.153   1.717
   69SOL     OW  205   0.614   0.122   0.117
   69SOL    HW1  206   0.712   0.100   0.124
   69SOL    HW2  207   0.583   0.105   0.024
   70SOL     OW  208   0.781   0.264   1.749
   70SOL    HW1  209   0.848   0.203   1.792
   70SOL    HW2  210   0.708   0.283   1.814
   71SOL     OW  211   0.888   1.514   1.195
   71SOL    HW1  212   0.865   1.489   1.101
   71SOL    HW2  213   0.949   1.445   1.234
   72SOL     OW  214   1.351   0.590   1.433
   72SOL    HW1  215   1.379   0.547   1.518
   72SOL    HW2  216   1.376   0.686   1.434
   73SOL     OW  217   0.803   1.402   0.924
   73SOL    HW1  218   0.893   1.416   0.882
   73SOL    HW2  219   0.732   1.404   0.853
   74SOL     OW  220   0.922   0.503   0.899
   74SOL    HW1  221   0.897   0.494   0.803
   74SOL    HW2  222   0.970   0.421   0.930
   75SOL     OW  223   0.539   0.064   0.512
   75SOL    HW1  224   0.458   0.065   0.570
   75SOL    HW2  225   0.542   0.147   0.457
   76SOL     OW  226   1.434   1.188   0.041
   76SOL    HW1  227   1.466   1.112   0.098
   76SOL    HW2  228   1.342   1.215   0.071
   77SOL     OW  229   0.297   0.035   0.171
   77SOL    HW1  230   0.346   0.119   0.150
   77SOL    HW2  231   0.359  -0.030   0.216
   78SOL     OW  232   0.935   0.236   0.480
   78SOL    HW1  233   0.887   0.277   0.402
   78SOL    HW2  234   1.034   0.234   0.461
   79SOL     OW  235   1.076   0.683   1.464
   79SOL    HW1  236   0.996   0.622   1.467
   79SOL    HW2  237   1.157   0.630   1.440
   80SOL     OW  238   1.227   1.570   0.793
   80SOL    HW1  239   1.248   1.644   0.728
   80SOL    HW2  240   1.295   1.570   0.866
   81SOL     OW  241   0.459   1.152   0.741
   81SOL    HW1  242   0.388   1.125   0.806
   81SOL    HW2  243   0.433   1.124   0.649
   82SOL     OW  244   1.271   1.797   0.591
   82SOL    HW1  245   1.315   1.861   0.527
   82SOL    HW2  246   1.221   1.849   0.661
   83SOL     OW  247   1.032   0.549   0.016
   83SOL    HW1  248   0.991   0.631  -0.023
   83SOL    HW2  249   1.096   0.575   0.089
   84SOL     OW  250   0.078   0.556   1.386
   84SOL    HW1  251   0.170   0.555   1.345
   84SOL    HW2  252   0.072   0.630   1.453
   85SOL     OW  253   0.561   0.222   1.147
   85SOL    HW1  254   0.599   0.138   1.184
   85SOL    HW2  255   0.473   0.241   1.191
   86SOL     OW  256   0.866   0.454   0.642
   86SOL    HW1  257   0.834   0.526   0.580
   86SOL    HW2  258   0.890   0.373   0.589
   87SOL     OW  259   1.017   0.039   0.753
   87SOL    HW1  260   0.945   0.044   0.684
   87SOL    HW2  261   0.993  -0.030   0.822
   88SOL     OW  262   1.429   1.173   0.867
   88SOL    HW1  263   1.374   1.089   0.860
   88SOL    HW2  264   1.455   1.202   0.775
   89SOL     OW  265   1.466   0.590   0.992
   89SOL    HW1  266   1.436   0.495   0.999
   89SOL    HW2  267   1.539   0.606   1.058
   90SOL     OW  268   1.857   0.833   0.377
   90SOL    HW1  269   1.899   0.769   0.441
   90SOL    HW2  270   1.819   0.782   0.299
   91SOL     OW  271   0.488   1.385   0.174
   91SOL    HW1  272   0.401   1.370   0.221
   91SOL    HW2  273   0.471   1.411   0.079
   92SOL     OW  274   1.664   1.280   0.657
   92SOL    HW1  275   1.763   1.288   0.671
   92SOL    HW2  276   1.619   1.364   0.688
   93SOL     OW  277   1.390   0.575   0.078
   93SOL    HW1  278   1.336   0.554   0.159
   93SOL    HW2  279   1.481   0.534   0.087
   94SOL     OW  280   0.527   0.256   0.328
   94SOL    HW1  281   0.554   0.197   0.253
   94SOL    HW2  282   0.527   0.351   0.297
   95SOL     OW  283   1.754   1.223   1.588
   95SOL    HW1  284   1.845   1.184   1.575
   95SOL    HW2  285   1.762   1.319   1.612
   96SOL     OW  286   1.064   1.347   1.340
   96SOL    HW1  287   0.984   1.324   1.395
   96SOL    HW2  288   1.147   1.321   1.389
   97SOL     OW  289   1.592   1.629   1.625
   97SOL    HW1  290   1.619   1.663   1.535
   97SOL    HW2  291   1.671   1.591   1.671
   98SOL     OW  292   1.111   1.195   1.100
   98SOL    HW1  293   1.071   1.239   1.180
   98SOL    HW2  294   1.070   1.232   1.017
   99SOL     OW  295   1.638   1.099   1.079
   99SOL    HW1  296   1.643   1.180   1.138
   99SOL    HW2  297   1.552   1.101   1.028
  100SOL     OW  298   0.915   0.089   1.402
  100SOL    HW1  299   0.940   0.069   1.307
  100SOL    HW2  300   0.987   0.145   1.444
  101SOL     OW  301   0.980   1.116   1.719
  101SOL    HW1  302   0.881   1.122   1.729
  101SOL    HW2  303   1.003   1.036   1.663
  102SOL     OW  304   0.705   1.050   0.368
  102SOL    HW1  305   0.691   1.057   0.467
  102SOL    HW2  306   0.789   0.999   0.350
  103SOL     OW  307   0.410   0.813   1.251
  103SOL    HW1  308   0.496   0.825   1.301
  103SOL    HW2  309   0.368   0.726   1.278
  104SOL     OW  310   1.274   0.386   1.262
  104SOL    HW1  311   1.295   0.460   1.326
  104SOL    HW2  312   1.185   0.403   1.219
  105SOL     OW  313   0.064   1.564   1.331
  105SOL    HW1  314   0.018   1.646   1.297
  105SOL    HW2  315   0.162   1.583   1.340
  106SOL     OW  316   0.367   1.100   0.501
  106SOL    HW1  317   0.360   1.183   0.445
  106SOL    HW2  318   0.371   1.020   0.441
  107SOL     OW  319   0.566   0.537   0.865
  107SOL    HW1  320   0.578   0.603   0.791
  107SOL    HW2  321   0.612   0.571   0.948
  108SOL     OW  322   1.252   1.348   0.388
  108SOL    HW1  323   1.302   1.425   0.428
  108SOL    HW2  324   1.157   1.350   0.420
  109SOL     OW  325   1.272   1.445   1.142
  109SOL    HW1  326   1.319   1.458   1.229
  109SOL    HW2  327   1.206   1.371   1.151
  110SOL     OW  328   1.582   0.639   0.472
  110SOL    HW1  329   1.551   0.700   0.545
  110SOL    HW2  330   1.632   0.691   0.403
  111SOL     OW  331   0.354   1.510   1.329
  111SOL    HW1  332   0.333   1.466   1.242
  111SOL    HW2  333   0.451   1.536   1.332
  112SOL     OW  334   0.402   0.751   1.598
  112SOL    HW1  335   0.470   0.806   1.551
  112SOL    HW2  336   0.442   0.663   1.625
  113SOL     OW  337   1.587   0.779   1.670
  113SOL    HW1  338   1.495   0.817   1.665
  113SOL    HW2  339   1.647   0.826   1.605
  114SOL     OW  340   1.013   0.105   1.770
  114SOL    HW1  341   1.019   0.190   1.718
  114SOL    HW2  342   1.045   0.029   1.713
  115SOL     OW  343   0.504   0.050   1.740
  115SOL    HW1  344   0.462  -0.007   1.670
  115SOL    HW2  345   0.438   0.119   1.772
  116SOL     OW  346   0.573   0.870   1.029
  116SOL    HW1  347   0.617   0.959   1.020
  116SOL    HW2  348   0.510   0.870   1.106
  117SOL     OW  349   1.360   0.862   1.045
  117SOL    HW1  350   1.285   0.862   0.979
  117SOL    HW2  351   1.397   0.770   1.054
  118SOL     OW  352   1.209   0.525   0.275
  118SOL    HW1  353   1.222   0.441   0.329
  118SOL    HW2  354   1.180   0.599   0.335
  119SOL     OW  355   0.307   0.213   1.231
  119SOL    HW1  356   0.284   0.250   1.321
  119SOL    HW2  357   0.277   0.118   1.225
  120SOL     OW  358   0.037   1.311   1.282
  120SOL    HW1  359   0.090   1.261   1.350
  120SOL    HW2  360   0.059   1.408   1.287
  121SOL     OW  361   0.732   0.634   1.064
  121SOL    HW1  362   0.791   0.608   0.988
  121SOL    HW2  363   0.704   0.730   1.053
  122SOL     OW  364   1.728   0.935   1.854
  122SOL    HW1  365   1.682   0.928   1.765
  122SOL    HW2  366   1.666   0.979   1.920
  123SOL     OW  367   0.307   0.063   0.618
  123SOL    HW1  368   0.296   0.157   0.651
  123SOL    HW2  369   0.302  -0.000   0.695
  124SOL     OW  370   1.622   0.367   0.373
  124SOL    HW1  371   1.624   0.291   0.438
  124SOL    HW2  372   1.574   0.444   0.414
  125SOL     OW  373   1.023   0.766   0.966
  125SOL    HW1  374   1.038   0.787   1.062
  125SOL    HW2  375   0.993   0.671   0.957
  126SOL     OW  376   0.980   1.573   1.700
  126SOL    HW1  377   0.960   1.617   1.612
  126SOL    HW2  378   1.019   1.482   1.684
  127SOL     OW  379   1.860   1.518   1.605
  127SOL    HW1  380   1.873   1.545   1.510
  127SOL    HW2  381   1.942   1.540   1.658
  128SOL     OW  382   0.350   0.898   1.804
  128SOL    HW1  383   0.426   0.942   1.852
  128SOL    HW2  384   0.385   0.851   1.722
  129SOL     OW  385   1.540   0.274   0.125
  129SOL    HW1  386   1.479   0.199   0.148
  129SOL    HW2  387   1.562   0.326   0.208
  130SOL     OW  388   1.303   0.838   0.042
  130SOL    HW1  389   1.337   0.745   0.057
  130SOL    HW2  390   1.321   0.865  -0.053
  131SOL     OW  391   1.068   1.333   0.849
  131SOL    HW1  392   1.075   1.249   0.794
  131SOL    HW2  393   1.130   1.402   0.813
  132SOL     OW  394   0.319   0.810   0.949
  132SOL    HW1  395   0.412   0.846   0.954
  132SOL    HW2  396   0.313   0.725   1.001
  133SOL     OW  397   0.339   0.509   1.006
  133SOL    HW1  398   0.287   0.426   0.989
  133SOL    HW2  399   0.416   0.514   0.942
  134SOL     OW  400   0.511   0.415   1.808
  134SOL    HW1  401   0.493   0.460   1.896
  134SOL    HW2  402   0.553   0.480   1.745
  135SOL     OW  403   1.138   0.380   1.678
  135SOL    HW1  404   1.093   0.443   1.742
  135SOL    HW2  405   1.231   0.411   1.661
  136SOL     OW  406   1.160   0.207   1.477
  136SOL    HW1  407   1.160   0.271   1.554
  136SOL    HW2  408   1.188   0.255   1.394
  137SOL     OW  409   0.008   1.326   0.200
  137SOL    HW1  410  -0.085   1.347   0.169
  137SOL    HW2  411   0.018   1.227   0.213
  138SOL     OW  412   0.088   1.801   0.927
  138SOL    HW1  413   0.046   1.715   0.900
  138SOL    HW2  414   0.182   1.804   0.893
  139SOL     OW  415   0.504   1.568   0.910
  139SOL    HW1  416   0.570   1.642   0.919
  139SOL    HW2  417   0.548   1.489   0.868
  140SOL     OW  418   1.002   0.796   1.238
  140SOL    HW1  419   1.043   0.764   1.324
  140SOL    HW2  420   0.906   0.769   1.235
  141SOL     OW  421   0.040   0.544   1.114
  141SOL    HW1  422   0.125   0.511   1.073
  141SOL    HW2  423   0.053   0.559   1.212
  142SOL     OW  424   0.189   0.520   1.722
  142SOL    HW1  425   0.248   0.480   1.652
  142SOL    HW2  426   0.131   0.591   1.681
  143SOL     OW  427   1.369   0.950   1.660
  143SOL    HW1  428   1.408   1.039   1.680
  143SOL    HW2  429   1.379   0.930   1.563
  144SOL     OW  430   0.815   0.572   0.325
  144SOL    HW1  431   0.822   0.483   0.279
  144SOL    HW2  432   0.721   0.606   0.317
  145SOL     OW  433   1.657   0.604   1.206
  145SOL    HW1  434   1.619   0.535   1.268
  145SOL    HW2  435   1.739   0.568   1.162
  146SOL     OW  436   0.252   1.564   1.744
  146SOL    HW1  437   0.222   1.621   1.820
  146SOL    HW2  438   0.245   1.467   1.770
  147SOL     OW  439   0.671   0.464   1.269
  147SOL    HW1  440   0.637   0.375   1.239
  147SOL    HW2  441   0.697   0.518   1.189
  148SOL     OW  442   0.930   1.678   1.465
  148SOL    HW1  443   0.906   1.660   1.370
  148SOL    HW2  444   0.960   1.772   1.475
  149SOL     OW  445   0.473   0.500   0.191
  149SOL    HW1  446   0.534   0.580   0.195
  149SOL    HW2  447   0.378   0.531   0.198
  150SOL     OW  448   0.159   1.137   1.466
  150SOL    HW1  449   0.181   1.076   1.542
  150SOL    HW2  450   0.169   1.088   1.380
  151SOL     OW  451   1.347   1.059   1.234
  151SOL    HW1  452   1.371   0.996   1.160
  151SOL    HW2  453   1.257   1.099   1.216
  152SOL     OW  454   1.302   0.855   0.309
  152SOL    HW1  455   1.216   0.824   0.351
  152SOL    HW2  456   1.298   0.841   0.210
  153SOL     OW  457   1.759   1.747   1.154
  153SOL    HW1  458   1.820   1.777   1.081
  153SOL    HW2  459   1.721   1.658   1.132
  154SOL     OW  460   1.252   1.731   1.128
  154SOL    HW1  461   1.336   1.736   1.074
  154SOL    HW2  462   1.229   1.635   1.146
  155SOL     OW  463   0.083   1.258   1.022
  155SOL    HW1  464   0.078   1.257   1.122
  155SOL    HW2  465   0.000   1.217   0.984
  156SOL     OW  466   0.688   1.662   1.716
  156SOL    HW1  467   0.632   1.743   1.725
  156SOL    HW2  468   0.740   1.666   1.630
  157SOL     OW  469   0.903   0.086   0.133
  157SOL    HW1  470   0.954   0.087   0.047
  157SOL    HW2  471   0.959   0.044   0.204
  158SOL     OW  472   1.726   0.135   0.523
  158SOL    HW1  473   1.799   0.118   0.456
  158SOL    HW2  474   1.695   0.048   0.561
  159SOL     OW  475   1.388   1.573   0.477
  159SOL    HW1  476   1.455   1.585   0.403
  159SOL    HW2  477   1.348   1.662   0.500
  160SOL     OW  478   0.130   1.794   1.851
  160SOL    HW1  479   0.089   1.720   1.904
  160SOL    HW2  480   0.194   1.845   1.909
  161SOL     OW  481   1.280   0.927   0.672
  161SOL    HW1  482   1.340   0.846   0.674
  161SOL    HW2  483   1.320   0.996   0.612
  162SOL     OW  484   0.830   1.273   1.422
  162SOL    HW1  485   0.825   1.306   1.517
  162SOL    HW2  486   0.744   1.292   1.376
  163SOL     OW  487   0.672   1.616   0.154
  163SOL    HW1  488   0.681   1.626   0.055
  163SOL    HW2  489   0.632   1.527   0.175
  164SOL     OW  490   1.650   1.720   1.394
  164SOL    HW1  491   1.703   1.730   1.310
  164SOL    HW2  492   1.623   1.810   1.428
  165SOL     OW  493   1.841   0.175   0.963
  165SOL    HW1  494   1.880   0.090   0.927
  165SOL    HW2  495   1.743   0.177   0.944
  166SOL     OW  496   0.263   0.326   0.720
  166SOL    HW1  497   0.184   0.377   0.686
  166SOL    HW2  498   0.254   0.311   0.818
  167SOL     OW  499   1.194   1.612   0.031
  167SOL    HW1  500   1.200   1.519   0.068
  167SOL    HW2  501   1.135   1.612  -0.049
  168SOL     OW  502   0.822   1.002   1.372
  168SOL    HW1  503   0.862   1.001   1.280
  168SOL    HW2  504   0.832   1.094   1.412
  169SOL     OW  505   0.916   0.910   0.291
  169SOL    HW1  506   0.979   0.948   0.223
  169SOL    HW2  507   0.956   0.827   0.330
  170SOL     OW  508   1.504   1.607   0.044
  170SOL    HW1  509   1.412   1.644   0.051
  170SOL    HW2  510   1.542   1.627  -0.046
  171SOL     OW  511   0.372   1.288   1.490
  171SOL    HW1  512   0.359   1.381   1.456
  171SOL    HW2  513   0.288   1.236   1.477
  172SOL     OW  514   1.614   1.292   1.289
  172SOL    HW1  515   1.674   1.295   1.369
  172SOL    HW2  516   1.539   1.356   1.302
  173SOL     OW  517   1.039   1.098   0.696
  173SOL    HW1  518   0.969   1.051   0.750
  173SOL    HW2  519   1.098   1.030   0.653
  174SOL     OW  520   1.014   0.236   0.971
  174SOL    HW1  521   1.006   0.200   0.878
  174SOL    HW2  522   1.012   0.160   1.036
  175SOL     OW  523   0.590   1.487   0.491
  175SOL    HW1  524   0.632   1.429   0.421
  175SOL    HW2  525   0.546   1.566   0.447
  176SOL     OW  526   1.709   0.385   1.381
  176SOL    HW1  527   1.782   0.454   1.385
  176SOL    HW2  528   1.737   0.310   1.322
  177SOL     OW  529   0.255   1.348   0.290
  177SOL    HW1  530   0.159   1.349   0.263
  177SOL    HW2  531   0.267   1.401   0.374
  178SOL     OW  532   0.105   1.013   1.726
  178SOL    HW1  533   0.028   0.980   1.780
  178SOL    HW2  534   0.190   0.983   1.768
  179SOL     OW  535   0.672   0.203   1.489
  179SOL    HW1  536   0.762   0.187   1.449
  179SOL    HW2  537   0.680   0.208   1.588
  180SOL     OW  538   0.075   0.345   0.033
  180SOL    HW1  539  -0.017   0.317   0.004
  180SOL    HW2  540   0.106   0.422  -0.023
  181SOL     OW  541   1.440   0.856   1.398
  181SOL    HW1  542   1.383   0.908   1.335
  181SOL    HW2  543   1.536   0.868   1.374
  182SOL     OW  544   0.072   0.166   0.318
  182SOL    HW1  545   0.055   0.249   0.264
  182SOL    HW2  546   0.162   0.129   0.296
  183SOL     OW  547   1.183   1.335   0.119
  183SOL    HW1  548   1.084   1.324   0.121
  183SOL    HW2  549   1.217   1.350   0.212
  184SOL     OW  550   0.613   0.842   1.431
  184SOL    HW1  551   0.669   0.923   1.414
  184SOL    HW2  552   0.672   0.761   1.434
  185SOL     OW  553   1.493   1.767   0.959
  185SOL    HW1  554   1.526   1.831   0.890
  185SOL    HW2  555   1.559   1.761   1.034
  186SOL     OW  556   0.716   0.565   1.708
  186SOL    HW1  557   0.735   0.630   1.782
  186SOL    HW2  558   0.776   0.485   1.717
  187SOL     OW  559   1.450   1.220   1.633
  187SOL    HW1  560   1.441   1.210   1.732
  187SOL    HW2  561   1.546   1.213   1.607
  188SOL     OW  562   0.390   1.741   1.560
  188SOL    HW1  563   0.299   1.782   1.558
  188SOL    HW2  564   0.383   1.647   1.592
  189SOL     OW  565   1.674   0.883   1.254
  189SOL    HW1  566   1.647   0.794   1.217
  189SOL    HW2  567   1.675   0.951   1.181
  190SOL     OW  568   1.225   0.325   0.449
  190SOL    HW1  569   1.290   0.251   0.438
  190SOL    HW2  570   1.245   0.375   0.533
  191SOL     OW  571   0.594   0.745   0.652
  191SOL    HW1  572   0.644   0.830   0.633
  191SOL    HW2  573   0.506   0.747   0.604
  192SOL     OW  574   1.777   0.342   1.642
  192SOL    HW1  575   1.760   0.373   1.548
  192SOL    HW2  576   1.693   0.305   1.680
  193SOL     OW  577   1.730   0.934   1.517
  193SOL    HW1  578   1.768   1.025   1.532
  193SOL    HW2  579   1.722   0.917   1.418
  194SOL     OW  580   0.859   1.374   0.016
  194SOL    HW1  581   0.813   1.389   0.104
  194SOL    HW2  582   0.903   1.459  -0.014
  195SOL     OW  583   0.661   1.790   0.953
  195SOL    HW1  584   0.615   1.878   0.940
  195SOL    HW2  585   0.760   1.802   0.946
  196SOL     OW  586   1.408   1.851   1.720
  196SOL    HW1  587   1.312   1.840   1.693
  196SOL    HW2  588   1.464   1.784   1.672
  197SOL     OW  589   0.859   0.956   0.861
  197SOL    HW1  590   0.913   0.887   0.909
  197SOL    HW2  591   0.827   1.025   0.927
  198SOL     OW  592   1.083   0.984   0.087
  198SOL    HW1  593   1.060   1.037   0.005
  198SOL    HW2  594   1.164   0.928   0.068
  199SOL     OW  595   1.861   1.569   0.851
  199SOL    HW1  596   1.790   1.557   0.781
  199SOL    HW2  597   1.862   1.490   0.911
  200SOL     OW  598   0.221   1.314   1.844
  200SOL    HW1  599   0.156   1.241   1.823
  200SOL    HW2  600   0.225   1.328   1.943
  201SOL     OW  601   0.079   1.240   0.653
  201SOL    HW1  602   0.078   1.193   0.741
  201SOL    HW2  603   0.161   1.212   0.602
  202SOL     OW  604   0.672   1.391   1.624
  202SOL    HW1  605   0.594   1.341   1.662
  202SOL    HW2  606   0.669   1.486   1.655
  203SOL     OW  607   1.824   0.192   1.227
  203SOL    HW1  608   1.820   0.102   1.271
  203SOL    HW2  609   1.827   0.181   1.128
  204SOL     OW  610   0.428   0.424   0.520
  204SOL    HW1  611   0.458   0.352   0.458
  204SOL    HW2  612   0.389   0.384   0.603
  205SOL     OW  613   1.705   1.487   1.104
  205SOL    HW1  614   1.612   1.462   1.077
  205SOL    HW2  615   1.731   1.437   1.186
  206SOL     OW  616   0.317   0.547   1.280
  206SOL    HW1  617   0.355   0.488   1.352
  206SOL    HW2  618   0.357   0.521   1.192
  207SOL     OW  619   0.812   1.586   0.687
  207SOL    HW1  620   0.844   1.596   0.593
  207SOL    HW2  621   0.733   1.524   0.689
  208SOL     OW  622   1.424   0.214   1.112
  208SOL    HW1  623   1.476   0.149   1.167
  208SOL    HW2  624   1.375   0.277   1.173
  209SOL     OW  625   1.001   0.034   1.154
  209SOL    HW1  626   0.938  -0.038   1.123
  209SOL    HW2  627   1.094  -0.002   1.154
  210SOL     OW  628   0.770   1.330   0.301
  210SOL    HW1  629   0.724   1.243   0.318
  210SOL    HW2  630   0.861   1.327   0.342
  211SOL     OW  631   0.618   1.567   1.284
  211SOL    HW1  632   0.613   1.649   1.341
  211SOL    HW2  633   0.707   1.564   1.239
  212SOL     OW  634   1.352   0.052   0.168
  212SOL    HW1  635   1.387   0.011   0.084
  212SOL    HW2  636   1.262   0.014   0.188
  213SOL     OW  637   1.300   0.453   0.691
  213SOL    HW1  638   1.241   0.533   0.695
  213SOL    HW2  639   1.315   0.418   0.784
  214SOL     OW  640   1.593   0.221   0.882
  214SOL    HW1  641   1.509   0.220   0.936
  214SOL    HW2  642   1.595   0.304   0.826
  215SOL     OW  643   0.039   1.077   0.300
  215SOL    HW1  644   0.138   1.066   0.291
  215SOL    HW2  645  -0.001   0.991   0.332
  216SOL     OW  646   0.875   1.646   0.337
  216SOL    HW1  647   0.798   1.611   0.283
  216SOL    HW2  648   0.843   1.717   0.399
   1.86206   1.86206   1.86206
